2575
timestep 0
Cu 0 0 0
Cu 0 -6.17 0
Cu 6.17 0 0
Cu 6.17 -6.17 0
Cu 3.085 -3.085 0
Cu 0 -12.34 0
Cu 6.17 -12.34 0
Cu 3.085 -9.254999999999999 0
Cu 0 -18.51 0
Cu 6.17 -18.51 0
Cu 3.085 -15.425 0
Cu 0 -24.68 0
Cu 6.17 -24.68 0
Cu 3.085 -21.595 0
Cu 0 -30.849999999999998 0
Cu 6.17 -30.849999999999998 0
Cu 3.085 -27.765 0
Cu 0 -37.019999999999996 0
Cu 6.17 -37.019999999999996 0
Cu 3.085 -33.934999999999995 0
Cu 0 -43.19 0
Cu 6.17 -43.19 0
Cu 3.085 -40.105 0
Cu 0 -49.36 0
Cu 6.17 -49.36 0
Cu 3.085 -46.275 0
Cu 0 -55.53 0
Cu 6.17 -55.53 0
Cu 3.085 -52.445 0
Cu 0 -61.7 0
Cu 6.17 -61.7 0
Cu 3.085 -58.615 0
Cu 0 -67.87 0
Cu 6.17 -67.87 0
Cu 3.085 -64.785 0
Cu 0 -74.04 0
Cu 6.17 -74.04 0
Cu 3.085 -70.95500000000001 0
Cu 0 -80.21000000000001 0
Cu 6.17 -80.21000000000001 0
Cu 3.085 -77.125 0
Cu 0 -86.38000000000001 0
Cu 6.17 -86.38000000000001 0
Cu 3.085 -83.29500000000002 0
Cu 0 -92.55000000000001 0
Cu 6.17 -92.55000000000001 0
Cu 3.085 -89.465 0
Cu 0 -98.72000000000001 0
Cu 6.17 -98.72000000000001 0
Cu 3.085 -95.63500000000002 0
Cu 0 -104.89000000000001 0
Cu 6.17 -104.89000000000001 0
Cu 3.085 -101.805 0
Cu 0 -111.06000000000002 0
Cu 6.17 -111.06000000000002 0
Cu 3.085 -107.97500000000002 0
Cu 0 -117.23000000000002 0
Cu 6.17 -117.23000000000002 0
Cu 3.085 -114.14500000000001 0
Cu 0 -123.40000000000002 0
Cu 6.17 -123.40000000000002 0
Cu 3.085 -120.31500000000003 0
Cu 12.34 0 0
Cu 12.34 -6.17 0
Cu 9.254999999999999 -3.085 0
Cu 12.34 -12.34 0
Cu 9.254999999999999 -9.254999999999999 0
Cu 12.34 -18.51 0
Cu 9.254999999999999 -15.425 0
Cu 12.34 -24.68 0
Cu 9.254999999999999 -21.595 0
Cu 12.34 -30.849999999999998 0
Cu 9.254999999999999 -27.765 0
Cu 12.34 -37.019999999999996 0
Cu 9.254999999999999 -33.934999999999995 0
Cu 12.34 -43.19 0
Cu 9.254999999999999 -40.105 0
Cu 12.34 -49.36 0
Cu 9.254999999999999 -46.275 0
Cu 12.34 -55.53 0
Cu 9.254999999999999 -52.445 0
Cu 12.34 -61.7 0
Cu 9.254999999999999 -58.615 0
Cu 12.34 -67.87 0
Cu 9.254999999999999 -64.785 0
Cu 12.34 -74.04 0
Cu 9.254999999999999 -70.95500000000001 0
Cu 12.34 -80.21000000000001 0
Cu 9.254999999999999 -77.125 0
Cu 12.34 -86.38000000000001 0
Cu 9.254999999999999 -83.29500000000002 0
Cu 12.34 -92.55000000000001 0
Cu 9.254999999999999 -89.465 0
Cu 12.34 -98.72000000000001 0
Cu 9.254999999999999 -95.63500000000002 0
Cu 12.34 -104.89000000000001 0
Cu 9.254999999999999 -101.805 0
Cu 12.34 -111.06000000000002 0
Cu 9.254999999999999 -107.97500000000002 0
Cu 12.34 -117.23000000000002 0
Cu 9.254999999999999 -114.14500000000001 0
Cu 12.34 -123.40000000000002 0
Cu 9.254999999999999 -120.31500000000003 0
Cu 0 0 -6.17
Cu 0 -6.17 -6.17
Cu 6.17 0 -6.17
Cu 6.17 -6.17 -6.17
Cu 3.085 -3.085 -6.17
Cu 0 -12.34 -6.17
Cu 6.17 -12.34 -6.17
Cu 3.085 -9.254999999999999 -6.17
Cu 0 -18.51 -6.17
Cu 6.17 -18.51 -6.17
Cu 3.085 -15.425 -6.17
Cu 0 -24.68 -6.17
Cu 6.17 -24.68 -6.17
Cu 3.085 -21.595 -6.17
Cu 0 -30.849999999999998 -6.17
Cu 6.17 -30.849999999999998 -6.17
Cu 3.085 -27.765 -6.17
Cu 0 -37.019999999999996 -6.17
Cu 6.17 -37.019999999999996 -6.17
Cu 3.085 -33.934999999999995 -6.17
Cu 0 -43.19 -6.17
Cu 6.17 -43.19 -6.17
Cu 3.085 -40.105 -6.17
Cu 0 -49.36 -6.17
Cu 6.17 -49.36 -6.17
Cu 3.085 -46.275 -6.17
Cu 0 -55.53 -6.17
Cu 6.17 -55.53 -6.17
Cu 3.085 -52.445 -6.17
Cu 0 -61.7 -6.17
Cu 6.17 -61.7 -6.17
Cu 3.085 -58.615 -6.17
Cu 0 -67.87 -6.17
Cu 6.17 -67.87 -6.17
Cu 3.085 -64.785 -6.17
Cu 0 -74.04 -6.17
Cu 6.17 -74.04 -6.17
Cu 3.085 -70.95500000000001 -6.17
Cu 0 -80.21000000000001 -6.17
Cu 6.17 -80.21000000000001 -6.17
Cu 3.085 -77.125 -6.17
Cu 0 -86.38000000000001 -6.17
Cu 6.17 -86.38000000000001 -6.17
Cu 3.085 -83.29500000000002 -6.17
Cu 0 -92.55000000000001 -6.17
Cu 6.17 -92.55000000000001 -6.17
Cu 3.085 -89.465 -6.17
Cu 0 -98.72000000000001 -6.17
Cu 6.17 -98.72000000000001 -6.17
Cu 3.085 -95.63500000000002 -6.17
Cu 0 -104.89000000000001 -6.17
Cu 6.17 -104.89000000000001 -6.17
Cu 3.085 -101.805 -6.17
Cu 0 -111.06000000000002 -6.17
Cu 6.17 -111.06000000000002 -6.17
Cu 3.085 -107.97500000000002 -6.17
Cu 0 -117.23000000000002 -6.17
Cu 6.17 -117.23000000000002 -6.17
Cu 3.085 -114.14500000000001 -6.17
Cu 0 -123.40000000000002 -6.17
Cu 6.17 -123.40000000000002 -6.17
Cu 3.085 -120.31500000000003 -6.17
Cu 12.34 0 -6.17
Cu 12.34 -6.17 -6.17
Cu 9.254999999999999 -3.085 -6.17
Cu 12.34 -12.34 -6.17
Cu 9.254999999999999 -9.254999999999999 -6.17
Cu 12.34 -18.51 -6.17
Cu 9.254999999999999 -15.425 -6.17
Cu 12.34 -24.68 -6.17
Cu 9.254999999999999 -21.595 -6.17
Cu 12.34 -30.849999999999998 -6.17
Cu 9.254999999999999 -27.765 -6.17
Cu 12.34 -37.019999999999996 -6.17
Cu 9.254999999999999 -33.934999999999995 -6.17
Cu 12.34 -43.19 -6.17
Cu 9.254999999999999 -40.105 -6.17
Cu 12.34 -49.36 -6.17
Cu 9.254999999999999 -46.275 -6.17
Cu 12.34 -55.53 -6.17
Cu 9.254999999999999 -52.445 -6.17
Cu 12.34 -61.7 -6.17
Cu 9.254999999999999 -58.615 -6.17
Cu 12.34 -67.87 -6.17
Cu 9.254999999999999 -64.785 -6.17
Cu 12.34 -74.04 -6.17
Cu 9.254999999999999 -70.95500000000001 -6.17
Cu 12.34 -80.21000000000001 -6.17
Cu 9.254999999999999 -77.125 -6.17
Cu 12.34 -86.38000000000001 -6.17
Cu 9.254999999999999 -83.29500000000002 -6.17
Cu 12.34 -92.55000000000001 -6.17
Cu 9.254999999999999 -89.465 -6.17
Cu 12.34 -98.72000000000001 -6.17
Cu 9.254999999999999 -95.63500000000002 -6.17
Cu 12.34 -104.89000000000001 -6.17
Cu 9.254999999999999 -101.805 -6.17
Cu 12.34 -111.06000000000002 -6.17
Cu 9.254999999999999 -107.97500000000002 -6.17
Cu 12.34 -117.23000000000002 -6.17
Cu 9.254999999999999 -114.14500000000001 -6.17
Cu 12.34 -123.40000000000002 -6.17
Cu 9.254999999999999 -120.31500000000003 -6.17
Cu 0 0 -12.34
Cu 0 -6.17 -12.34
Cu 6.17 0 -12.34
Cu 6.17 -6.17 -12.34
Cu 3.085 -3.085 -12.34
Cu 0 -12.34 -12.34
Cu 6.17 -12.34 -12.34
Cu 3.085 -9.254999999999999 -12.34
Cu 0 -18.51 -12.34
Cu 6.17 -18.51 -12.34
Cu 3.085 -15.425 -12.34
Cu 0 -24.68 -12.34
Cu 6.17 -24.68 -12.34
Cu 3.085 -21.595 -12.34
Cu 0 -30.849999999999998 -12.34
Cu 6.17 -30.849999999999998 -12.34
Cu 3.085 -27.765 -12.34
Cu 0 -37.019999999999996 -12.34
Cu 6.17 -37.019999999999996 -12.34
Cu 3.085 -33.934999999999995 -12.34
Cu 0 -43.19 -12.34
Cu 6.17 -43.19 -12.34
Cu 3.085 -40.105 -12.34
Cu 0 -49.36 -12.34
Cu 6.17 -49.36 -12.34
Cu 3.085 -46.275 -12.34
Cu 0 -55.53 -12.34
Cu 6.17 -55.53 -12.34
Cu 3.085 -52.445 -12.34
Cu 0 -61.7 -12.34
Cu 6.17 -61.7 -12.34
Cu 3.085 -58.615 -12.34
Cu 0 -67.87 -12.34
Cu 6.17 -67.87 -12.34
Cu 3.085 -64.785 -12.34
Cu 0 -74.04 -12.34
Cu 6.17 -74.04 -12.34
Cu 3.085 -70.95500000000001 -12.34
Cu 0 -80.21000000000001 -12.34
Cu 6.17 -80.21000000000001 -12.34
Cu 3.085 -77.125 -12.34
Cu 0 -86.38000000000001 -12.34
Cu 6.17 -86.38000000000001 -12.34
Cu 3.085 -83.29500000000002 -12.34
Cu 0 -92.55000000000001 -12.34
Cu 6.17 -92.55000000000001 -12.34
Cu 3.085 -89.465 -12.34
Cu 0 -98.72000000000001 -12.34
Cu 6.17 -98.72000000000001 -12.34
Cu 3.085 -95.63500000000002 -12.34
Cu 0 -104.89000000000001 -12.34
Cu 6.17 -104.89000000000001 -12.34
Cu 3.085 -101.805 -12.34
Cu 0 -111.06000000000002 -12.34
Cu 6.17 -111.06000000000002 -12.34
Cu 3.085 -107.97500000000002 -12.34
Cu 0 -117.23000000000002 -12.34
Cu 6.17 -117.23000000000002 -12.34
Cu 3.085 -114.14500000000001 -12.34
Cu 0 -123.40000000000002 -12.34
Cu 6.17 -123.40000000000002 -12.34
Cu 3.085 -120.31500000000003 -12.34
Cu 12.34 0 -12.34
Cu 12.34 -6.17 -12.34
Cu 9.254999999999999 -3.085 -12.34
Cu 12.34 -12.34 -12.34
Cu 9.254999999999999 -9.254999999999999 -12.34
Cu 12.34 -18.51 -12.34
Cu 9.254999999999999 -15.425 -12.34
Cu 12.34 -24.68 -12.34
Cu 9.254999999999999 -21.595 -12.34
Cu 12.34 -30.849999999999998 -12.34
Cu 9.254999999999999 -27.765 -12.34
Cu 12.34 -37.019999999999996 -12.34
Cu 9.254999999999999 -33.934999999999995 -12.34
Cu 12.34 -43.19 -12.34
Cu 9.254999999999999 -40.105 -12.34
Cu 12.34 -49.36 -12.34
Cu 9.254999999999999 -46.275 -12.34
Cu 12.34 -55.53 -12.34
Cu 9.254999999999999 -52.445 -12.34
Cu 12.34 -61.7 -12.34
Cu 9.254999999999999 -58.615 -12.34
Cu 12.34 -67.87 -12.34
Cu 9.254999999999999 -64.785 -12.34
Cu 12.34 -74.04 -12.34
Cu 9.254999999999999 -70.95500000000001 -12.34
Cu 12.34 -80.21000000000001 -12.34
Cu 9.254999999999999 -77.125 -12.34
Cu 12.34 -86.38000000000001 -12.34
Cu 9.254999999999999 -83.29500000000002 -12.34
Cu 12.34 -92.55000000000001 -12.34
Cu 9.254999999999999 -89.465 -12.34
Cu 12.34 -98.72000000000001 -12.34
Cu 9.254999999999999 -95.63500000000002 -12.34
Cu 12.34 -104.89000000000001 -12.34
Cu 9.254999999999999 -101.805 -12.34
Cu 12.34 -111.06000000000002 -12.34
Cu 9.254999999999999 -107.97500000000002 -12.34
Cu 12.34 -117.23000000000002 -12.34
Cu 9.254999999999999 -114.14500000000001 -12.34
Cu 12.34 -123.40000000000002 -12.34
Cu 9.254999999999999 -120.31500000000003 -12.34
Cu 0 0 -18.509999999999998
Cu 0 -6.17 -18.509999999999998
Cu 6.17 0 -18.509999999999998
Cu 6.17 -6.17 -18.509999999999998
Cu 3.085 -3.085 -18.509999999999998
Cu 0 -12.34 -18.509999999999998
Cu 6.17 -12.34 -18.509999999999998
Cu 3.085 -9.254999999999999 -18.509999999999998
Cu 0 -18.51 -18.509999999999998
Cu 6.17 -18.51 -18.509999999999998
Cu 3.085 -15.425 -18.509999999999998
Cu 0 -24.68 -18.509999999999998
Cu 6.17 -24.68 -18.509999999999998
Cu 3.085 -21.595 -18.509999999999998
Cu 0 -30.849999999999998 -18.509999999999998
Cu 6.17 -30.849999999999998 -18.509999999999998
Cu 3.085 -27.765 -18.509999999999998
Cu 0 -37.019999999999996 -18.509999999999998
Cu 6.17 -37.019999999999996 -18.509999999999998
Cu 3.085 -33.934999999999995 -18.509999999999998
Cu 0 -43.19 -18.509999999999998
Cu 6.17 -43.19 -18.509999999999998
Cu 3.085 -40.105 -18.509999999999998
Cu 0 -49.36 -18.509999999999998
Cu 6.17 -49.36 -18.509999999999998
Cu 3.085 -46.275 -18.509999999999998
Cu 0 -55.53 -18.509999999999998
Cu 6.17 -55.53 -18.509999999999998
Cu 3.085 -52.445 -18.509999999999998
Cu 0 -61.7 -18.509999999999998
Cu 6.17 -61.7 -18.509999999999998
Cu 3.085 -58.615 -18.509999999999998
Cu 0 -67.87 -18.509999999999998
Cu 6.17 -67.87 -18.509999999999998
Cu 3.085 -64.785 -18.509999999999998
Cu 0 -74.04 -18.509999999999998
Cu 6.17 -74.04 -18.509999999999998
Cu 3.085 -70.95500000000001 -18.509999999999998
Cu 0 -80.21000000000001 -18.509999999999998
Cu 6.17 -80.21000000000001 -18.509999999999998
Cu 3.085 -77.125 -18.509999999999998
Cu 0 -86.38000000000001 -18.509999999999998
Cu 6.17 -86.38000000000001 -18.509999999999998
Cu 3.085 -83.29500000000002 -18.509999999999998
Cu 0 -92.55000000000001 -18.509999999999998
Cu 6.17 -92.55000000000001 -18.509999999999998
Cu 3.085 -89.465 -18.509999999999998
Cu 0 -98.72000000000001 -18.509999999999998
Cu 6.17 -98.72000000000001 -18.509999999999998
Cu 3.085 -95.63500000000002 -18.509999999999998
Cu 0 -104.89000000000001 -18.509999999999998
Cu 6.17 -104.89000000000001 -18.509999999999998
Cu 3.085 -101.805 -18.509999999999998
Cu 0 -111.06000000000002 -18.509999999999998
Cu 6.17 -111.06000000000002 -18.509999999999998
Cu 3.085 -107.97500000000002 -18.509999999999998
Cu 0 -117.23000000000002 -18.509999999999998
Cu 6.17 -117.23000000000002 -18.509999999999998
Cu 3.085 -114.14500000000001 -18.509999999999998
Cu 0 -123.40000000000002 -18.509999999999998
Cu 6.17 -123.40000000000002 -18.509999999999998
Cu 3.085 -120.31500000000003 -18.509999999999998
Cu 12.34 0 -18.509999999999998
Cu 12.34 -6.17 -18.509999999999998
Cu 9.254999999999999 -3.085 -18.509999999999998
Cu 12.34 -12.34 -18.509999999999998
Cu 9.254999999999999 -9.254999999999999 -18.509999999999998
Cu 12.34 -18.51 -18.509999999999998
Cu 9.254999999999999 -15.425 -18.509999999999998
Cu 12.34 -24.68 -18.509999999999998
Cu 9.254999999999999 -21.595 -18.509999999999998
Cu 12.34 -30.849999999999998 -18.509999999999998
Cu 9.254999999999999 -27.765 -18.509999999999998
Cu 12.34 -37.019999999999996 -18.509999999999998
Cu 9.254999999999999 -33.934999999999995 -18.509999999999998
Cu 12.34 -43.19 -18.509999999999998
Cu 9.254999999999999 -40.105 -18.509999999999998
Cu 12.34 -49.36 -18.509999999999998
Cu 9.254999999999999 -46.275 -18.509999999999998
Cu 12.34 -55.53 -18.509999999999998
Cu 9.254999999999999 -52.445 -18.509999999999998
Cu 12.34 -61.7 -18.509999999999998
Cu 9.254999999999999 -58.615 -18.509999999999998
Cu 12.34 -67.87 -18.509999999999998
Cu 9.254999999999999 -64.785 -18.509999999999998
Cu 12.34 -74.04 -18.509999999999998
Cu 9.254999999999999 -70.95500000000001 -18.509999999999998
Cu 12.34 -80.21000000000001 -18.509999999999998
Cu 9.254999999999999 -77.125 -18.509999999999998
Cu 12.34 -86.38000000000001 -18.509999999999998
Cu 9.254999999999999 -83.29500000000002 -18.509999999999998
Cu 12.34 -92.55000000000001 -18.509999999999998
Cu 9.254999999999999 -89.465 -18.509999999999998
Cu 12.34 -98.72000000000001 -18.509999999999998
Cu 9.254999999999999 -95.63500000000002 -18.509999999999998
Cu 12.34 -104.89000000000001 -18.509999999999998
Cu 9.254999999999999 -101.805 -18.509999999999998
Cu 12.34 -111.06000000000002 -18.509999999999998
Cu 9.254999999999999 -107.97500000000002 -18.509999999999998
Cu 12.34 -117.23000000000002 -18.509999999999998
Cu 9.254999999999999 -114.14500000000001 -18.509999999999998
Cu 12.34 -123.40000000000002 -18.509999999999998
Cu 9.254999999999999 -120.31500000000003 -18.509999999999998
Cu 0 0 -24.68
Cu 0 -6.17 -24.68
Cu 6.17 0 -24.68
Cu 6.17 -6.17 -24.68
Cu 3.085 -3.085 -24.68
Cu 0 -12.34 -24.68
Cu 6.17 -12.34 -24.68
Cu 3.085 -9.254999999999999 -24.68
Cu 0 -18.51 -24.68
Cu 6.17 -18.51 -24.68
Cu 3.085 -15.425 -24.68
Cu 0 -24.68 -24.68
Cu 6.17 -24.68 -24.68
Cu 3.085 -21.595 -24.68
Cu 0 -30.849999999999998 -24.68
Cu 6.17 -30.849999999999998 -24.68
Cu 3.085 -27.765 -24.68
Cu 0 -37.019999999999996 -24.68
Cu 6.17 -37.019999999999996 -24.68
Cu 3.085 -33.934999999999995 -24.68
Cu 0 -43.19 -24.68
Cu 6.17 -43.19 -24.68
Cu 3.085 -40.105 -24.68
Cu 0 -49.36 -24.68
Cu 6.17 -49.36 -24.68
Cu 3.085 -46.275 -24.68
Cu 0 -55.53 -24.68
Cu 6.17 -55.53 -24.68
Cu 3.085 -52.445 -24.68
Cu 0 -61.7 -24.68
Cu 6.17 -61.7 -24.68
Cu 3.085 -58.615 -24.68
Cu 0 -67.87 -24.68
Cu 6.17 -67.87 -24.68
Cu 3.085 -64.785 -24.68
Cu 0 -74.04 -24.68
Cu 6.17 -74.04 -24.68
Cu 3.085 -70.95500000000001 -24.68
Cu 0 -80.21000000000001 -24.68
Cu 6.17 -80.21000000000001 -24.68
Cu 3.085 -77.125 -24.68
Cu 0 -86.38000000000001 -24.68
Cu 6.17 -86.38000000000001 -24.68
Cu 3.085 -83.29500000000002 -24.68
Cu 0 -92.55000000000001 -24.68
Cu 6.17 -92.55000000000001 -24.68
Cu 3.085 -89.465 -24.68
Cu 0 -98.72000000000001 -24.68
Cu 6.17 -98.72000000000001 -24.68
Cu 3.085 -95.63500000000002 -24.68
Cu 0 -104.89000000000001 -24.68
Cu 6.17 -104.89000000000001 -24.68
Cu 3.085 -101.805 -24.68
Cu 0 -111.06000000000002 -24.68
Cu 6.17 -111.06000000000002 -24.68
Cu 3.085 -107.97500000000002 -24.68
Cu 0 -117.23000000000002 -24.68
Cu 6.17 -117.23000000000002 -24.68
Cu 3.085 -114.14500000000001 -24.68
Cu 0 -123.40000000000002 -24.68
Cu 6.17 -123.40000000000002 -24.68
Cu 3.085 -120.31500000000003 -24.68
Cu 12.34 0 -24.68
Cu 12.34 -6.17 -24.68
Cu 9.254999999999999 -3.085 -24.68
Cu 12.34 -12.34 -24.68
Cu 9.254999999999999 -9.254999999999999 -24.68
Cu 12.34 -18.51 -24.68
Cu 9.254999999999999 -15.425 -24.68
Cu 12.34 -24.68 -24.68
Cu 9.254999999999999 -21.595 -24.68
Cu 12.34 -30.849999999999998 -24.68
Cu 9.254999999999999 -27.765 -24.68
Cu 12.34 -37.019999999999996 -24.68
Cu 9.254999999999999 -33.934999999999995 -24.68
Cu 12.34 -43.19 -24.68
Cu 9.254999999999999 -40.105 -24.68
Cu 12.34 -49.36 -24.68
Cu 9.254999999999999 -46.275 -24.68
Cu 12.34 -55.53 -24.68
Cu 9.254999999999999 -52.445 -24.68
Cu 12.34 -61.7 -24.68
Cu 9.254999999999999 -58.615 -24.68
Cu 12.34 -67.87 -24.68
Cu 9.254999999999999 -64.785 -24.68
Cu 12.34 -74.04 -24.68
Cu 9.254999999999999 -70.95500000000001 -24.68
Cu 12.34 -80.21000000000001 -24.68
Cu 9.254999999999999 -77.125 -24.68
Cu 12.34 -86.38000000000001 -24.68
Cu 9.254999999999999 -83.29500000000002 -24.68
Cu 12.34 -92.55000000000001 -24.68
Cu 9.254999999999999 -89.465 -24.68
Cu 12.34 -98.72000000000001 -24.68
Cu 9.254999999999999 -95.63500000000002 -24.68
Cu 12.34 -104.89000000000001 -24.68
Cu 9.254999999999999 -101.805 -24.68
Cu 12.34 -111.06000000000002 -24.68
Cu 9.254999999999999 -107.97500000000002 -24.68
Cu 12.34 -117.23000000000002 -24.68
Cu 9.254999999999999 -114.14500000000001 -24.68
Cu 12.34 -123.40000000000002 -24.68
Cu 9.254999999999999 -120.31500000000003 -24.68
Cu 0 0 -30.85
Cu 0 -6.17 -30.85
Cu 6.17 0 -30.85
Cu 6.17 -6.17 -30.85
Cu 3.085 -3.085 -30.85
Cu 0 -12.34 -30.85
Cu 6.17 -12.34 -30.85
Cu 3.085 -9.254999999999999 -30.85
Cu 0 -18.51 -30.85
Cu 6.17 -18.51 -30.85
Cu 3.085 -15.425 -30.85
Cu 0 -24.68 -30.85
Cu 6.17 -24.68 -30.85
Cu 3.085 -21.595 -30.85
Cu 0 -30.849999999999998 -30.85
Cu 6.17 -30.849999999999998 -30.85
Cu 3.085 -27.765 -30.85
Cu 0 -37.019999999999996 -30.85
Cu 6.17 -37.019999999999996 -30.85
Cu 3.085 -33.934999999999995 -30.85
Cu 0 -43.19 -30.85
Cu 6.17 -43.19 -30.85
Cu 3.085 -40.105 -30.85
Cu 0 -49.36 -30.85
Cu 6.17 -49.36 -30.85
Cu 3.085 -46.275 -30.85
Cu 0 -55.53 -30.85
Cu 6.17 -55.53 -30.85
Cu 3.085 -52.445 -30.85
Cu 0 -61.7 -30.85
Cu 6.17 -61.7 -30.85
Cu 3.085 -58.615 -30.85
Cu 0 -67.87 -30.85
Cu 6.17 -67.87 -30.85
Cu 3.085 -64.785 -30.85
Cu 0 -74.04 -30.85
Cu 6.17 -74.04 -30.85
Cu 3.085 -70.95500000000001 -30.85
Cu 0 -80.21000000000001 -30.85
Cu 6.17 -80.21000000000001 -30.85
Cu 3.085 -77.125 -30.85
Cu 0 -86.38000000000001 -30.85
Cu 6.17 -86.38000000000001 -30.85
Cu 3.085 -83.29500000000002 -30.85
Cu 0 -92.55000000000001 -30.85
Cu 6.17 -92.55000000000001 -30.85
Cu 3.085 -89.465 -30.85
Cu 0 -98.72000000000001 -30.85
Cu 6.17 -98.72000000000001 -30.85
Cu 3.085 -95.63500000000002 -30.85
Cu 0 -104.89000000000001 -30.85
Cu 6.17 -104.89000000000001 -30.85
Cu 3.085 -101.805 -30.85
Cu 0 -111.06000000000002 -30.85
Cu 6.17 -111.06000000000002 -30.85
Cu 3.085 -107.97500000000002 -30.85
Cu 0 -117.23000000000002 -30.85
Cu 6.17 -117.23000000000002 -30.85
Cu 3.085 -114.14500000000001 -30.85
Cu 0 -123.40000000000002 -30.85
Cu 6.17 -123.40000000000002 -30.85
Cu 3.085 -120.31500000000003 -30.85
Cu 12.34 0 -30.85
Cu 12.34 -6.17 -30.85
Cu 9.254999999999999 -3.085 -30.85
Cu 12.34 -12.34 -30.85
Cu 9.254999999999999 -9.254999999999999 -30.85
Cu 12.34 -18.51 -30.85
Cu 9.254999999999999 -15.425 -30.85
Cu 12.34 -24.68 -30.85
Cu 9.254999999999999 -21.595 -30.85
Cu 12.34 -30.849999999999998 -30.85
Cu 9.254999999999999 -27.765 -30.85
Cu 12.34 -37.019999999999996 -30.85
Cu 9.254999999999999 -33.934999999999995 -30.85
Cu 12.34 -43.19 -30.85
Cu 9.254999999999999 -40.105 -30.85
Cu 12.34 -49.36 -30.85
Cu 9.254999999999999 -46.275 -30.85
Cu 12.34 -55.53 -30.85
Cu 9.254999999999999 -52.445 -30.85
Cu 12.34 -61.7 -30.85
Cu 9.254999999999999 -58.615 -30.85
Cu 12.34 -67.87 -30.85
Cu 9.254999999999999 -64.785 -30.85
Cu 12.34 -74.04 -30.85
Cu 9.254999999999999 -70.95500000000001 -30.85
Cu 12.34 -80.21000000000001 -30.85
Cu 9.254999999999999 -77.125 -30.85
Cu 12.34 -86.38000000000001 -30.85
Cu 9.254999999999999 -83.29500000000002 -30.85
Cu 12.34 -92.55000000000001 -30.85
Cu 9.254999999999999 -89.465 -30.85
Cu 12.34 -98.72000000000001 -30.85
Cu 9.254999999999999 -95.63500000000002 -30.85
Cu 12.34 -104.89000000000001 -30.85
Cu 9.254999999999999 -101.805 -30.85
Cu 12.34 -111.06000000000002 -30.85
Cu 9.254999999999999 -107.97500000000002 -30.85
Cu 12.34 -117.23000000000002 -30.85
Cu 9.254999999999999 -114.14500000000001 -30.85
Cu 12.34 -123.40000000000002 -30.85
Cu 9.254999999999999 -120.31500000000003 -30.85
Cu 0 0 -37.02
Cu 0 -6.17 -37.02
Cu 6.17 0 -37.02
Cu 6.17 -6.17 -37.02
Cu 3.085 -3.085 -37.02
Cu 0 -12.34 -37.02
Cu 6.17 -12.34 -37.02
Cu 3.085 -9.254999999999999 -37.02
Cu 0 -18.51 -37.02
Cu 6.17 -18.51 -37.02
Cu 3.085 -15.425 -37.02
Cu 0 -24.68 -37.02
Cu 6.17 -24.68 -37.02
Cu 3.085 -21.595 -37.02
Cu 0 -30.849999999999998 -37.02
Cu 6.17 -30.849999999999998 -37.02
Cu 3.085 -27.765 -37.02
Cu 0 -37.019999999999996 -37.02
Cu 6.17 -37.019999999999996 -37.02
Cu 3.085 -33.934999999999995 -37.02
Cu 0 -43.19 -37.02
Cu 6.17 -43.19 -37.02
Cu 3.085 -40.105 -37.02
Cu 0 -49.36 -37.02
Cu 6.17 -49.36 -37.02
Cu 3.085 -46.275 -37.02
Cu 0 -55.53 -37.02
Cu 6.17 -55.53 -37.02
Cu 3.085 -52.445 -37.02
Cu 0 -61.7 -37.02
Cu 6.17 -61.7 -37.02
Cu 3.085 -58.615 -37.02
Cu 0 -67.87 -37.02
Cu 6.17 -67.87 -37.02
Cu 3.085 -64.785 -37.02
Cu 0 -74.04 -37.02
Cu 6.17 -74.04 -37.02
Cu 3.085 -70.95500000000001 -37.02
Cu 0 -80.21000000000001 -37.02
Cu 6.17 -80.21000000000001 -37.02
Cu 3.085 -77.125 -37.02
Cu 0 -86.38000000000001 -37.02
Cu 6.17 -86.38000000000001 -37.02
Cu 3.085 -83.29500000000002 -37.02
Cu 0 -92.55000000000001 -37.02
Cu 6.17 -92.55000000000001 -37.02
Cu 3.085 -89.465 -37.02
Cu 0 -98.72000000000001 -37.02
Cu 6.17 -98.72000000000001 -37.02
Cu 3.085 -95.63500000000002 -37.02
Cu 0 -104.89000000000001 -37.02
Cu 6.17 -104.89000000000001 -37.02
Cu 3.085 -101.805 -37.02
Cu 0 -111.06000000000002 -37.02
Cu 6.17 -111.06000000000002 -37.02
Cu 3.085 -107.97500000000002 -37.02
Cu 0 -117.23000000000002 -37.02
Cu 6.17 -117.23000000000002 -37.02
Cu 3.085 -114.14500000000001 -37.02
Cu 0 -123.40000000000002 -37.02
Cu 6.17 -123.40000000000002 -37.02
Cu 3.085 -120.31500000000003 -37.02
Cu 12.34 0 -37.02
Cu 12.34 -6.17 -37.02
Cu 9.254999999999999 -3.085 -37.02
Cu 12.34 -12.34 -37.02
Cu 9.254999999999999 -9.254999999999999 -37.02
Cu 12.34 -18.51 -37.02
Cu 9.254999999999999 -15.425 -37.02
Cu 12.34 -24.68 -37.02
Cu 9.254999999999999 -21.595 -37.02
Cu 12.34 -30.849999999999998 -37.02
Cu 9.254999999999999 -27.765 -37.02
Cu 12.34 -37.019999999999996 -37.02
Cu 9.254999999999999 -33.934999999999995 -37.02
Cu 12.34 -43.19 -37.02
Cu 9.254999999999999 -40.105 -37.02
Cu 12.34 -49.36 -37.02
Cu 9.254999999999999 -46.275 -37.02
Cu 12.34 -55.53 -37.02
Cu 9.254999999999999 -52.445 -37.02
Cu 12.34 -61.7 -37.02
Cu 9.254999999999999 -58.615 -37.02
Cu 12.34 -67.87 -37.02
Cu 9.254999999999999 -64.785 -37.02
Cu 12.34 -74.04 -37.02
Cu 9.254999999999999 -70.95500000000001 -37.02
Cu 12.34 -80.21000000000001 -37.02
Cu 9.254999999999999 -77.125 -37.02
Cu 12.34 -86.38000000000001 -37.02
Cu 9.254999999999999 -83.29500000000002 -37.02
Cu 12.34 -92.55000000000001 -37.02
Cu 9.254999999999999 -89.465 -37.02
Cu 12.34 -98.72000000000001 -37.02
Cu 9.254999999999999 -95.63500000000002 -37.02
Cu 12.34 -104.89000000000001 -37.02
Cu 9.254999999999999 -101.805 -37.02
Cu 12.34 -111.06000000000002 -37.02
Cu 9.254999999999999 -107.97500000000002 -37.02
Cu 12.34 -117.23000000000002 -37.02
Cu 9.254999999999999 -114.14500000000001 -37.02
Cu 12.34 -123.40000000000002 -37.02
Cu 9.254999999999999 -120.31500000000003 -37.02
Cu 0 0 -43.190000000000005
Cu 0 -6.17 -43.190000000000005
Cu 6.17 0 -43.190000000000005
Cu 6.17 -6.17 -43.190000000000005
Cu 3.085 -3.085 -43.190000000000005
Cu 0 -12.34 -43.190000000000005
Cu 6.17 -12.34 -43.190000000000005
Cu 3.085 -9.254999999999999 -43.190000000000005
Cu 0 -18.51 -43.190000000000005
Cu 6.17 -18.51 -43.190000000000005
Cu 3.085 -15.425 -43.190000000000005
Cu 0 -24.68 -43.190000000000005
Cu 6.17 -24.68 -43.190000000000005
Cu 3.085 -21.595 -43.190000000000005
Cu 0 -30.849999999999998 -43.190000000000005
Cu 6.17 -30.849999999999998 -43.190000000000005
Cu 3.085 -27.765 -43.190000000000005
Cu 0 -37.019999999999996 -43.190000000000005
Cu 6.17 -37.019999999999996 -43.190000000000005
Cu 3.085 -33.934999999999995 -43.190000000000005
Cu 0 -43.19 -43.190000000000005
Cu 6.17 -43.19 -43.190000000000005
Cu 3.085 -40.105 -43.190000000000005
Cu 0 -49.36 -43.190000000000005
Cu 6.17 -49.36 -43.190000000000005
Cu 3.085 -46.275 -43.190000000000005
Cu 0 -55.53 -43.190000000000005
Cu 6.17 -55.53 -43.190000000000005
Cu 3.085 -52.445 -43.190000000000005
Cu 0 -61.7 -43.190000000000005
Cu 6.17 -61.7 -43.190000000000005
Cu 3.085 -58.615 -43.190000000000005
Cu 0 -67.87 -43.190000000000005
Cu 6.17 -67.87 -43.190000000000005
Cu 3.085 -64.785 -43.190000000000005
Cu 0 -74.04 -43.190000000000005
Cu 6.17 -74.04 -43.190000000000005
Cu 3.085 -70.95500000000001 -43.190000000000005
Cu 0 -80.21000000000001 -43.190000000000005
Cu 6.17 -80.21000000000001 -43.190000000000005
Cu 3.085 -77.125 -43.190000000000005
Cu 0 -86.38000000000001 -43.190000000000005
Cu 6.17 -86.38000000000001 -43.190000000000005
Cu 3.085 -83.29500000000002 -43.190000000000005
Cu 0 -92.55000000000001 -43.190000000000005
Cu 6.17 -92.55000000000001 -43.190000000000005
Cu 3.085 -89.465 -43.190000000000005
Cu 0 -98.72000000000001 -43.190000000000005
Cu 6.17 -98.72000000000001 -43.190000000000005
Cu 3.085 -95.63500000000002 -43.190000000000005
Cu 0 -104.89000000000001 -43.190000000000005
Cu 6.17 -104.89000000000001 -43.190000000000005
Cu 3.085 -101.805 -43.190000000000005
Cu 0 -111.06000000000002 -43.190000000000005
Cu 6.17 -111.06000000000002 -43.190000000000005
Cu 3.085 -107.97500000000002 -43.190000000000005
Cu 0 -117.23000000000002 -43.190000000000005
Cu 6.17 -117.23000000000002 -43.190000000000005
Cu 3.085 -114.14500000000001 -43.190000000000005
Cu 0 -123.40000000000002 -43.190000000000005
Cu 6.17 -123.40000000000002 -43.190000000000005
Cu 3.085 -120.31500000000003 -43.190000000000005
Cu 12.34 0 -43.190000000000005
Cu 12.34 -6.17 -43.190000000000005
Cu 9.254999999999999 -3.085 -43.190000000000005
Cu 12.34 -12.34 -43.190000000000005
Cu 9.254999999999999 -9.254999999999999 -43.190000000000005
Cu 12.34 -18.51 -43.190000000000005
Cu 9.254999999999999 -15.425 -43.190000000000005
Cu 12.34 -24.68 -43.190000000000005
Cu 9.254999999999999 -21.595 -43.190000000000005
Cu 12.34 -30.849999999999998 -43.190000000000005
Cu 9.254999999999999 -27.765 -43.190000000000005
Cu 12.34 -37.019999999999996 -43.190000000000005
Cu 9.254999999999999 -33.934999999999995 -43.190000000000005
Cu 12.34 -43.19 -43.190000000000005
Cu 9.254999999999999 -40.105 -43.190000000000005
Cu 12.34 -49.36 -43.190000000000005
Cu 9.254999999999999 -46.275 -43.190000000000005
Cu 12.34 -55.53 -43.190000000000005
Cu 9.254999999999999 -52.445 -43.190000000000005
Cu 12.34 -61.7 -43.190000000000005
Cu 9.254999999999999 -58.615 -43.190000000000005
Cu 12.34 -67.87 -43.190000000000005
Cu 9.254999999999999 -64.785 -43.190000000000005
Cu 12.34 -74.04 -43.190000000000005
Cu 9.254999999999999 -70.95500000000001 -43.190000000000005
Cu 12.34 -80.21000000000001 -43.190000000000005
Cu 9.254999999999999 -77.125 -43.190000000000005
Cu 12.34 -86.38000000000001 -43.190000000000005
Cu 9.254999999999999 -83.29500000000002 -43.190000000000005
Cu 12.34 -92.55000000000001 -43.190000000000005
Cu 9.254999999999999 -89.465 -43.190000000000005
Cu 12.34 -98.72000000000001 -43.190000000000005
Cu 9.254999999999999 -95.63500000000002 -43.190000000000005
Cu 12.34 -104.89000000000001 -43.190000000000005
Cu 9.254999999999999 -101.805 -43.190000000000005
Cu 12.34 -111.06000000000002 -43.190000000000005
Cu 9.254999999999999 -107.97500000000002 -43.190000000000005
Cu 12.34 -117.23000000000002 -43.190000000000005
Cu 9.254999999999999 -114.14500000000001 -43.190000000000005
Cu 12.34 -123.40000000000002 -43.190000000000005
Cu 9.254999999999999 -120.31500000000003 -43.190000000000005
Cu 0 0 -49.36000000000001
Cu 0 -6.17 -49.36000000000001
Cu 6.17 0 -49.36000000000001
Cu 6.17 -6.17 -49.36000000000001
Cu 3.085 -3.085 -49.36000000000001
Cu 0 -12.34 -49.36000000000001
Cu 6.17 -12.34 -49.36000000000001
Cu 3.085 -9.254999999999999 -49.36000000000001
Cu 0 -18.51 -49.36000000000001
Cu 6.17 -18.51 -49.36000000000001
Cu 3.085 -15.425 -49.36000000000001
Cu 0 -24.68 -49.36000000000001
Cu 6.17 -24.68 -49.36000000000001
Cu 3.085 -21.595 -49.36000000000001
Cu 0 -30.849999999999998 -49.36000000000001
Cu 6.17 -30.849999999999998 -49.36000000000001
Cu 3.085 -27.765 -49.36000000000001
Cu 0 -37.019999999999996 -49.36000000000001
Cu 6.17 -37.019999999999996 -49.36000000000001
Cu 3.085 -33.934999999999995 -49.36000000000001
Cu 0 -43.19 -49.36000000000001
Cu 6.17 -43.19 -49.36000000000001
Cu 3.085 -40.105 -49.36000000000001
Cu 0 -49.36 -49.36000000000001
Cu 6.17 -49.36 -49.36000000000001
Cu 3.085 -46.275 -49.36000000000001
Cu 0 -55.53 -49.36000000000001
Cu 6.17 -55.53 -49.36000000000001
Cu 3.085 -52.445 -49.36000000000001
Cu 0 -61.7 -49.36000000000001
Cu 6.17 -61.7 -49.36000000000001
Cu 3.085 -58.615 -49.36000000000001
Cu 0 -67.87 -49.36000000000001
Cu 6.17 -67.87 -49.36000000000001
Cu 3.085 -64.785 -49.36000000000001
Cu 0 -74.04 -49.36000000000001
Cu 6.17 -74.04 -49.36000000000001
Cu 3.085 -70.95500000000001 -49.36000000000001
Cu 0 -80.21000000000001 -49.36000000000001
Cu 6.17 -80.21000000000001 -49.36000000000001
Cu 3.085 -77.125 -49.36000000000001
Cu 0 -86.38000000000001 -49.36000000000001
Cu 6.17 -86.38000000000001 -49.36000000000001
Cu 3.085 -83.29500000000002 -49.36000000000001
Cu 0 -92.55000000000001 -49.36000000000001
Cu 6.17 -92.55000000000001 -49.36000000000001
Cu 3.085 -89.465 -49.36000000000001
Cu 0 -98.72000000000001 -49.36000000000001
Cu 6.17 -98.72000000000001 -49.36000000000001
Cu 3.085 -95.63500000000002 -49.36000000000001
Cu 0 -104.89000000000001 -49.36000000000001
Cu 6.17 -104.89000000000001 -49.36000000000001
Cu 3.085 -101.805 -49.36000000000001
Cu 0 -111.06000000000002 -49.36000000000001
Cu 6.17 -111.06000000000002 -49.36000000000001
Cu 3.085 -107.97500000000002 -49.36000000000001
Cu 0 -117.23000000000002 -49.36000000000001
Cu 6.17 -117.23000000000002 -49.36000000000001
Cu 3.085 -114.14500000000001 -49.36000000000001
Cu 0 -123.40000000000002 -49.36000000000001